
                    DL_POLY Classic 1.10

                              Running on    1 nodes


 ************************************************************************************************************************
 ************************************************************************************************************************
 ************************************************************************************************************************
 ***************     # minimisation                                                                       ***************
 ************************************************************************************************************************
 ************************************************************************************************************************
 ************************************************************************************************************************


 SIMULATION CONTROL PARAMETERS


 structure optimisation requested
 convergence to minimum energy selected
 tolerance for structure optimisation      1.0000E+00         

 selected number of timesteps            1

 simulation timestep              1.0000E-03

 real space cut off               1.2500E+01

 border width of Verlet shell     1.0000E+00

 Ewald sum  precision             1.0000E-06

 Electrostatics : Ewald sum  

 Ewald convergence parameter      2.5396E-01
 Ewald kmax1 kmax2 kmax3         9    8    8

 user allocated job time (d)    ********

 job closure time        (s)    2000.000

 statistics file interval                1


SYSTEM SPECIFICATION

 energy units=kcal/ mol 


 number of molecular types               2

 molecular species type                  1


 name of species:             &guest Self-consistent Neon: https://doi

 number of molecules                     1

 number of atoms/sites                   2


 atomic characteristics:

                      site     name          mass        charge    repeat    freeze

                         1     Nex         20.17970     0.00000         1         0
                         2     DUM          0.00000     0.00000         1         0

 number of rigid units                   1

 rigid body details:

                           unit   indices

                              1         1

 molecular species type                  2


 name of species:             Framework                               

 number of molecules                    36

 number of atoms/sites                  44


 atomic characteristics:

                      site     name          mass        charge    repeat    freeze

                         3     Zn          65.38000     0.82225         1         1
                         4     Zn          65.38000     0.82223         1         1
                         5     Zn          65.38000     0.82223         1         1
                         6     Zn          65.38000     0.82229         1         1
                         7     N           14.00670    -0.33147         1         1
                         8     N           14.00670    -0.33147         1         1
                         9     N           14.00670    -0.33144         1         1
                        10     N           14.00670    -0.33144         1         1
                        11     N           14.00670    -0.14746         1         1
                        12     N           14.00670    -0.14746         1         1
                        13     N           14.00670    -0.14748         1         1
                        14     N           14.00670    -0.14748         1         1
                        15     N           14.00670    -0.39498         1         1
                        16     N           14.00670    -0.39499         1         1
                        17     N           14.00670    -0.39502         1         1
                        18     N           14.00670    -0.39496         1         1
                        19     O           15.99940    -0.56331         1         1
                        20     O           15.99940    -0.56329         1         1
                        21     O           15.99940    -0.56331         1         1
                        22     O           15.99940    -0.56333         1         1
                        23     O           15.99940    -0.47679         1         1
                        24     O           15.99940    -0.47680         1         1
                        25     O           15.99940    -0.47679         1         1
                        26     O           15.99940    -0.47678         1         1
                        27     C           12.01070     0.22788         1         1
                        28     C           12.01070     0.22788         1         1
                        29     C           12.01070     0.22788         1         1
                        30     C           12.01070     0.22783         1         1
                        31     H            1.00794     0.06907         1         1
                        32     H            1.00794     0.06907         1         1
                        33     H            1.00794     0.06907         1         1
                        34     H            1.00794     0.06909         1         1
                        35     C           12.01070     0.20824         1         1
                        36     C           12.01070     0.20824         1         1
                        37     C           12.01070     0.20827         1         1
                        38     C           12.01070     0.20825         1         1
                        39     H            1.00794     0.08720         1         1
                        40     H            1.00794     0.08721         1         1
                        41     H            1.00794     0.08721         1         1
                        42     H            1.00794     0.08721         1         1
                        43     C           12.01070     0.49938         1         1
                        44     C           12.01070     0.49935         1         1
                        45     C           12.01070     0.49936         1         1
                        46     C           12.01070     0.49938         1         1


 number of specified pair potentials        21


                atom 1  atom 2      key                              parameters


                Zn      Zn        lj       1.24000E-01  2.46160E+00
                Zn      N         lj       9.24990E-02  2.86115E+00
                Zn      O         lj       8.62550E-02  2.78985E+00
                Zn      C         lj       1.14105E-01  2.94625E+00
                Zn      H         lj       7.38650E-02  2.51635E+00
                Zn      Nex       lj       9.56130E-02  2.56580E+00
                N       N         lj       6.90000E-02  3.26070E+00
                N       O         lj       6.43430E-02  3.18940E+00
                N       C         lj       8.51180E-02  3.34580E+00
                N       H         lj       5.51000E-02  2.91590E+00
                N       Nex       lj       7.13230E-02  2.96535E+00
                O       O         lj       6.00000E-02  3.11810E+00
                O       C         lj       7.93730E-02  3.27450E+00
                O       H         lj       5.13810E-02  2.84460E+00
                O       Nex       lj       6.65090E-02  2.89405E+00
                C       C         lj       1.05000E-01  3.43090E+00
                C       H         lj       6.79710E-02  3.00100E+00
                C       Nex       lj       8.79840E-02  3.05045E+00
                H       H         lj       4.40000E-02  2.57110E+00
                H       Nex       lj       5.69550E-02  2.62055E+00
                Nex     Nex       lj       7.37250E-02  2.67000E+00

  *** warning - undefined atom-atom interactions set to zero ***

 configuration file name: 

          calf-20                                                                         


 selected image convention               3


 simulation cell vectors


                        35.655198    0.000000    0.000000
                         0.000000   29.080468    0.000000
                       -12.425115    0.000000   25.594261


 system volume            26537.9179060    


             summary of rigid body set up

 group of type          1
             total mass           20.1797000000
             rot. inertia          0.0000000000        0.0000000000        0.0000000000

             site        a coord        b coord        c coord
                1    0.00000E+00   -0.00000E+00    0.00000E+00


 total degrees of freedom                         3.
 rotational degrees of freedom                    0.
 shell pseudo degrees of freedom                  0.


 sample of starting configuration

      i       x(i)        y(i)        z(i)       vx(i)       vy(i)       vz(i)


      1  3.2583E+00  3.4300E+00  3.9991E+00  0.0000E+00  0.0000E+00  0.0000E+00
     81  6.9555E+00  2.4757E+00 -1.1289E+01  0.0000E+00  0.0000E+00  0.0000E+00
    161  5.6523E+00  1.1616E+01  6.3235E+00  0.0000E+00  0.0000E+00  0.0000E+00
    241  7.7882E+00 -1.0431E+01 -5.2059E+00  0.0000E+00  0.0000E+00  0.0000E+00
    321  6.6617E+00 -8.2637E+00 -1.2029E+01  0.0000E+00  0.0000E+00  0.0000E+00
    401  1.3927E+01  9.1341E+00  4.8050E+00  0.0000E+00  0.0000E+00  0.0000E+00
    481  1.6820E+01  2.9977E+00 -1.1343E+01  0.0000E+00  0.0000E+00  0.0000E+00
    561  1.3591E+01  1.1563E+01  6.7960E+00  0.0000E+00  0.0000E+00  0.0000E+00
    641  1.4596E+01 -9.9911E+00 -5.7434E+00  0.0000E+00  0.0000E+00  0.0000E+00
    721  1.4875E+01 -6.8688E+00 -1.0459E+01  0.0000E+00  0.0000E+00  0.0000E+00
    801 -1.1805E+01  1.0740E+00  5.3893E+00  0.0000E+00  0.0000E+00  0.0000E+00
    881 -1.9467E+01  9.3949E+00  1.2102E+01  0.0000E+00  0.0000E+00  0.0000E+00
    961 -1.9155E+01  1.2169E+01  5.7741E+00  0.0000E+00  0.0000E+00  0.0000E+00
   1041 -8.0336E+00  1.1616E+01 -2.2079E+00  0.0000E+00  0.0000E+00  0.0000E+00
   1121 -1.8323E+01 -7.3767E-01  1.1857E+01  0.0000E+00  0.0000E+00  0.0000E+00
   1201 -1.0536E+01  1.4298E+00  5.0335E+00  0.0000E+00  0.0000E+00  0.0000E+00
   1281  2.4129E-01  9.1341E+00 -3.7264E+00  0.0000E+00  0.0000E+00  0.0000E+00
   1361 -9.2907E+00  1.2691E+01  5.7200E+00  0.0000E+00  0.0000E+00  0.0000E+00
   1441 -9.4785E-02  1.1563E+01 -1.7354E+00  0.0000E+00  0.0000E+00  0.0000E+00
   1521 -1.1515E+01 -2.9758E-01  1.1319E+01  0.0000E+00  0.0000E+00  0.0000E+00


long range correction for: vdw energy    -0.232998E-01
                         : vdw pressure  -0.120397E-03

 time elapsed since job start =           0.005 seconds

 ------------------------------------------------------------------------------------------------------------------------

     step     eng_tot    temp_tot     eng_cfg     eng_vdw     eng_cou     eng_bnd     eng_ang     eng_dih     eng_tet
 time          eng_pv    temp_rot     vir_cfg     vir_vdw     vir_cou     vir_bnd     vir_ang     vir_con     vir_tet
 cpu time      volume    temp_shl     eng_shl     vir_shl       alpha        beta       gamma     vir_pmf       press


 ------------------------------------------------------------------------------------------------------------------------
        1 -1.2754E+04  0.0000E+00 -1.2754E+04 -1.5203E+00 -1.2753E+04  0.0000E+00  0.0000E+00  0.0000E+00  0.0000E+00
   1.000f -1.2806E+04  0.0000E+00  1.5410E+02  6.2926E+00  1.4781E+02  0.0000E+00  0.0000E+00  0.0000E+00  0.0000E+00
   0.052s  2.6538E+04  0.0000E+00  0.0000E+00  0.0000E+00  9.0000E+01  1.1589E+02  9.0000E+01  0.0000E+00 -1.3272E-01

  rolling -1.2754E+04  0.0000E+00 -1.2754E+04 -1.5203E+00 -1.2753E+04  0.0000E+00  0.0000E+00  0.0000E+00  0.0000E+00
 averages -1.2806E+04  0.0000E+00  1.5410E+02  6.2926E+00  1.4781E+02  0.0000E+00  0.0000E+00  0.0000E+00  0.0000E+00
           2.6538E+04  0.0000E+00  0.0000E+00  0.0000E+00  9.0000E+01  1.1589E+02  9.0000E+01  0.0000E+00 -1.3272E-01
 ------------------------------------------------------------------------------------------------------------------------


 run terminating. elapsed cpu time =   5.20000E-02, job time = *******d, close time = 2000.00s



 run terminated after       1 steps. final averages calculated over       1 steps.


 ------------------------------------------------------------------------------------------------------------------------

     step     eng_tot    temp_tot     eng_cfg     eng_vdw     eng_cou     eng_bnd     eng_ang     eng_dih     eng_tet
 time          eng_pv    temp_rot     vir_cfg     vir_vdw     vir_cou     vir_bnd     vir_ang     vir_con     vir_tet
 cpu time      volume    temp_shl     eng_shl     vir_shl       alpha        beta       gamma     vir_pmf       press


 ------------------------------------------------------------------------------------------------------------------------
        1 -1.2754E+04  0.0000E+00 -1.2754E+04 -1.5203E+00 -1.2753E+04  0.0000E+00  0.0000E+00  0.0000E+00  0.0000E+00
   1.000f -1.2806E+04  0.0000E+00  1.5410E+02  6.2926E+00  1.4781E+02  0.0000E+00  0.0000E+00  0.0000E+00  0.0000E+00
   0.058s  2.6538E+04  0.0000E+00  0.0000E+00  0.0000E+00  9.0000E+01  1.1589E+02  9.0000E+01  0.0000E+00 -1.3272E-01

  r.m.s.   0.0000E+00  0.0000E+00  0.0000E+00  0.0000E+00  0.0000E+00  0.0000E+00  0.0000E+00  0.0000E+00  0.0000E+00
 fluctn.   0.0000E+00  0.0000E+00  0.0000E+00  0.0000E+00  0.0000E+00  0.0000E+00  0.0000E+00  0.0000E+00  0.0000E+00
           0.0000E+00  0.0000E+00  0.0000E+00  0.0000E+00  0.0000E+00  0.0000E+00  0.0000E+00  0.0000E+00  0.0000E+00
 ------------------------------------------------------------------------------------------------------------------------


            Approximate 3D Diffusion  coefficients (10^-9 m^2 / s)

            atom        D 
            Nex        0.0000E+00
            DUM        0.0000E+00
            Zn         0.0000E+00
            N          0.0000E+00
            O          0.0000E+00
            C          0.0000E+00
            H          0.0000E+00


                Average pressure tensor                                       r.m.s. fluctuations 

          -1.7249E-01 -6.4560E-04 -1.1014E-01                          0.0000E+00  0.0000E+00  0.0000E+00
          -6.4560E-04 -7.4387E-02  1.1394E-04                          0.0000E+00  0.0000E+00  0.0000E+00
          -1.1014E-01  1.1394E-04 -1.5129E-01                          0.0000E+00  0.0000E+00  0.0000E+00

            trace/3.  -1.3272E-01


 gaussian moments of momenta. over  0.000000E+00 samples
    0.000000E+00    0.000000E+00    0.000000E+00    0.000000E+00    0.000000E+00


 sample of final configuration

      i       x(i)        y(i)        z(i)       vx(i)       vy(i)       vz(i)       fx(i)       fy(i)       fz(i)


      1  3.2585E+00  3.4290E+00  3.9993E+00  0.0000E+00  0.0000E+00  0.0000E+00  2.2551E+01 -9.9834E+01  2.1605E+01
     81  6.9555E+00  2.4757E+00 -1.1289E+01  0.0000E+00  0.0000E+00  0.0000E+00  0.0000E+00  0.0000E+00  0.0000E+00
    161  5.6523E+00  1.1616E+01  6.3235E+00  0.0000E+00  0.0000E+00  0.0000E+00  0.0000E+00  0.0000E+00  0.0000E+00
    241  7.7882E+00 -1.0431E+01 -5.2059E+00  0.0000E+00  0.0000E+00  0.0000E+00  0.0000E+00  0.0000E+00  0.0000E+00
    321  6.6617E+00 -8.2637E+00 -1.2029E+01  0.0000E+00  0.0000E+00  0.0000E+00  0.0000E+00  0.0000E+00  0.0000E+00
    401  1.3927E+01  9.1341E+00  4.8050E+00  0.0000E+00  0.0000E+00  0.0000E+00  0.0000E+00  0.0000E+00  0.0000E+00
    481  1.6820E+01  2.9977E+00 -1.1343E+01  0.0000E+00  0.0000E+00  0.0000E+00  0.0000E+00  0.0000E+00  0.0000E+00
    561  1.3591E+01  1.1563E+01  6.7960E+00  0.0000E+00  0.0000E+00  0.0000E+00  0.0000E+00  0.0000E+00  0.0000E+00
    641  1.4596E+01 -9.9911E+00 -5.7434E+00  0.0000E+00  0.0000E+00  0.0000E+00  0.0000E+00  0.0000E+00  0.0000E+00
    721  1.4875E+01 -6.8688E+00 -1.0459E+01  0.0000E+00  0.0000E+00  0.0000E+00  0.0000E+00  0.0000E+00  0.0000E+00
    801 -1.1805E+01  1.0740E+00  5.3893E+00  0.0000E+00  0.0000E+00  0.0000E+00  0.0000E+00  0.0000E+00  0.0000E+00
    881 -1.9467E+01  9.3949E+00  1.2102E+01  0.0000E+00  0.0000E+00  0.0000E+00  0.0000E+00  0.0000E+00  0.0000E+00
    961 -1.9155E+01  1.2169E+01  5.7741E+00  0.0000E+00  0.0000E+00  0.0000E+00  0.0000E+00  0.0000E+00  0.0000E+00
   1041 -8.0336E+00  1.1616E+01 -2.2079E+00  0.0000E+00  0.0000E+00  0.0000E+00  0.0000E+00  0.0000E+00  0.0000E+00
   1121 -1.8323E+01 -7.3767E-01  1.1857E+01  0.0000E+00  0.0000E+00  0.0000E+00  0.0000E+00  0.0000E+00  0.0000E+00
   1201 -1.0536E+01  1.4298E+00  5.0335E+00  0.0000E+00  0.0000E+00  0.0000E+00  0.0000E+00  0.0000E+00  0.0000E+00
   1281  2.4129E-01  9.1341E+00 -3.7264E+00  0.0000E+00  0.0000E+00  0.0000E+00  0.0000E+00  0.0000E+00  0.0000E+00
   1361 -9.2907E+00  1.2691E+01  5.7200E+00  0.0000E+00  0.0000E+00  0.0000E+00  0.0000E+00  0.0000E+00  0.0000E+00
   1441 -9.4785E-02  1.1563E+01 -1.7354E+00  0.0000E+00  0.0000E+00  0.0000E+00  0.0000E+00  0.0000E+00  0.0000E+00
   1521 -1.1515E+01 -2.9758E-01  1.1319E+01  0.0000E+00  0.0000E+00  0.0000E+00  0.0000E+00  0.0000E+00  0.0000E+00

 time elapsed since job start =           0.059 seconds

