
                    DL_POLY Classic 1.10

                              Running on    1 nodes


 ************************************************************************************************************************
 ************************************************************************************************************************
 ************************************************************************************************************************
 ***************     # minimisation                                                                       ***************
 ************************************************************************************************************************
 ************************************************************************************************************************
 ************************************************************************************************************************


 SIMULATION CONTROL PARAMETERS


 structure optimisation requested
 convergence to minimum energy selected
 tolerance for structure optimisation      1.0000E+00         

 selected number of timesteps            1

 simulation timestep              1.0000E-03

 real space cut off               1.2500E+01

 border width of Verlet shell     1.0000E+00

 Ewald sum  precision             1.0000E-06

 Electrostatics : Ewald sum  

 Ewald convergence parameter      2.5396E-01
 Ewald kmax1 kmax2 kmax3         9    8    8

 user allocated job time (d)    ********

 job closure time        (s)    2000.000

 statistics file interval                1


SYSTEM SPECIFICATION

 energy units=kcal/ mol 


 number of molecular types               2

 molecular species type                  1


 name of species:             &guest Hydrogen Sulphide for Vapor-Liqui

 number of molecules                     1

 number of atoms/sites                   3


 atomic characteristics:

                      site     name          mass        charge    repeat    freeze

                         1     SX          32.06500    -0.38000         1         0
                         2     HS           1.00800     0.19000         1         0
                         3     HS           1.00800     0.19000         1         0

 number of rigid units                   1

 rigid body details:

                           unit   indices

                              1         1         2         3

 molecular species type                  2


 name of species:             Framework                               

 number of molecules                    36

 number of atoms/sites                  44


 atomic characteristics:

                      site     name          mass        charge    repeat    freeze

                         4     Zn          65.38000     0.82225         1         1
                         5     Zn          65.38000     0.82223         1         1
                         6     Zn          65.38000     0.82223         1         1
                         7     Zn          65.38000     0.82229         1         1
                         8     N           14.00670    -0.33147         1         1
                         9     N           14.00670    -0.33147         1         1
                        10     N           14.00670    -0.33144         1         1
                        11     N           14.00670    -0.33144         1         1
                        12     N           14.00670    -0.14746         1         1
                        13     N           14.00670    -0.14746         1         1
                        14     N           14.00670    -0.14748         1         1
                        15     N           14.00670    -0.14748         1         1
                        16     N           14.00670    -0.39498         1         1
                        17     N           14.00670    -0.39499         1         1
                        18     N           14.00670    -0.39502         1         1
                        19     N           14.00670    -0.39496         1         1
                        20     O           15.99940    -0.56331         1         1
                        21     O           15.99940    -0.56329         1         1
                        22     O           15.99940    -0.56331         1         1
                        23     O           15.99940    -0.56333         1         1
                        24     O           15.99940    -0.47679         1         1
                        25     O           15.99940    -0.47680         1         1
                        26     O           15.99940    -0.47679         1         1
                        27     O           15.99940    -0.47678         1         1
                        28     C           12.01070     0.22788         1         1
                        29     C           12.01070     0.22788         1         1
                        30     C           12.01070     0.22788         1         1
                        31     C           12.01070     0.22783         1         1
                        32     H            1.00794     0.06907         1         1
                        33     H            1.00794     0.06907         1         1
                        34     H            1.00794     0.06907         1         1
                        35     H            1.00794     0.06909         1         1
                        36     C           12.01070     0.20824         1         1
                        37     C           12.01070     0.20824         1         1
                        38     C           12.01070     0.20827         1         1
                        39     C           12.01070     0.20825         1         1
                        40     H            1.00794     0.08720         1         1
                        41     H            1.00794     0.08721         1         1
                        42     H            1.00794     0.08721         1         1
                        43     H            1.00794     0.08721         1         1
                        44     C           12.01070     0.49938         1         1
                        45     C           12.01070     0.49935         1         1
                        46     C           12.01070     0.49936         1         1
                        47     C           12.01070     0.49938         1         1


 number of specified pair potentials        28


                atom 1  atom 2      key                              parameters


                Zn      Zn        lj       1.24000E-01  2.46160E+00
                Zn      N         lj       9.24990E-02  2.86115E+00
                Zn      O         lj       8.62550E-02  2.78985E+00
                Zn      C         lj       1.14105E-01  2.94625E+00
                Zn      H         lj       7.38650E-02  2.51635E+00
                Zn      SX        lj       2.39098E-01  3.09080E+00
                Zn      HS        lj       0.00000E+00  0.00000E+00
                N       N         lj       6.90000E-02  3.26070E+00
                N       O         lj       6.43430E-02  3.18940E+00
                N       C         lj       8.51180E-02  3.34580E+00
                N       H         lj       5.51000E-02  2.91590E+00
                N       SX        lj       1.78357E-01  3.49035E+00
                N       HS        lj       0.00000E+00  0.00000E+00
                O       O         lj       6.00000E-02  3.11810E+00
                O       C         lj       7.93730E-02  3.27450E+00
                O       H         lj       5.13810E-02  2.84460E+00
                O       SX        lj       1.66318E-01  3.41905E+00
                O       HS        lj       0.00000E+00  0.00000E+00
                C       C         lj       1.05000E-01  3.43090E+00
                C       H         lj       6.79710E-02  3.00100E+00
                C       SX        lj       2.20019E-01  3.57545E+00
                C       HS        lj       0.00000E+00  0.00000E+00
                H       H         lj       4.40000E-02  2.57110E+00
                H       SX        lj       1.42427E-01  3.14555E+00
                H       HS        lj       0.00000E+00  0.00000E+00
                SX      SX        lj       4.61030E-01  3.72000E+00
                SX      HS        lj       0.00000E+00  0.00000E+00
                HS      HS        lj       0.00000E+00  0.00000E+00

 configuration file name: 

          calf-20                                                                         


 selected image convention               3


 simulation cell vectors


                        35.655198    0.000000    0.000000
                         0.000000   29.080468    0.000000
                       -12.425115    0.000000   25.594261


 system volume            26537.9179060    


             summary of rigid body set up

 group of type          1
             total mass           34.0810000000
             rot. inertia          3.5174351050        1.8889115880        1.6285235171

             site        a coord        b coord        c coord
                1    0.00000E+00   -5.48113E-02    0.00000E+00
                2    0.00000E+00    8.71789E-01    9.67967E-01
                3    0.00000E+00    8.71789E-01   -9.67967E-01


 total degrees of freedom                         3.
 rotational degrees of freedom                    3.
 shell pseudo degrees of freedom                  0.


 sample of starting configuration

      i       x(i)        y(i)        z(i)       vx(i)       vy(i)       vz(i)


      1  1.6241E+00  5.5178E+00  3.9991E+00  0.0000E+00  0.0000E+00  0.0000E+00
     81 -3.3987E+00  2.3710E+00  1.0040E+01  0.0000E+00  0.0000E+00  0.0000E+00
    161  7.7232E+00  1.2618E+01  2.0578E+00  0.0000E+00  0.0000E+00  0.0000E+00
    241  5.7173E+00 -1.3803E+01 -9.4017E-01  0.0000E+00  0.0000E+00  0.0000E+00
    321 -3.6926E+00 -6.2765E+00  9.2992E+00  0.0000E+00  0.0000E+00  0.0000E+00
    401  1.5998E+01  5.4062E+00  5.3927E-01  0.0000E+00  0.0000E+00  0.0000E+00
    481  6.4661E+00  1.8490E+00  9.9858E+00  0.0000E+00  0.0000E+00  0.0000E+00
    561  1.5662E+01  1.2671E+01  2.5303E+00  0.0000E+00  0.0000E+00  0.0000E+00
    641  1.2525E+01 -1.4243E+01 -1.4777E+00  0.0000E+00  0.0000E+00  0.0000E+00
    721  4.5211E+00 -7.6714E+00  1.0870E+01  0.0000E+00  0.0000E+00  0.0000E+00
    801 -9.7338E+00  3.7727E+00  1.1236E+00  0.0000E+00  0.0000E+00  0.0000E+00
    881 -9.1125E+00  5.1453E+00 -9.2267E+00  0.0000E+00  0.0000E+00  0.0000E+00
    961 -1.7085E+01  1.2065E+01  1.5084E+00  0.0000E+00  0.0000E+00  0.0000E+00
   1041 -5.9627E+00  1.2618E+01 -6.4736E+00  0.0000E+00  0.0000E+00  0.0000E+00
   1121 -7.9686E+00 -4.1091E+00 -9.4716E+00  0.0000E+00  0.0000E+00  0.0000E+00
   1201 -8.4647E+00  3.4170E+00  7.6783E-01  0.0000E+00  0.0000E+00  0.0000E+00
   1281  2.3121E+00  5.4062E+00 -7.9922E+00  0.0000E+00  0.0000E+00  0.0000E+00
   1361 -7.2198E+00  1.1543E+01  1.4543E+00  0.0000E+00  0.0000E+00  0.0000E+00
   1441  1.9761E+00  1.2671E+01 -6.0011E+00  0.0000E+00  0.0000E+00  0.0000E+00
   1521 -1.1604E+00 -4.5491E+00 -1.0009E+01  0.0000E+00  0.0000E+00  0.0000E+00


long range correction for: vdw energy    -0.156682E+00
                         : vdw pressure  -0.809543E-03

 time elapsed since job start =           0.007 seconds

 ------------------------------------------------------------------------------------------------------------------------

     step     eng_tot    temp_tot     eng_cfg     eng_vdw     eng_cou     eng_bnd     eng_ang     eng_dih     eng_tet
 time          eng_pv    temp_rot     vir_cfg     vir_vdw     vir_cou     vir_bnd     vir_ang     vir_con     vir_tet
 cpu time      volume    temp_shl     eng_shl     vir_shl       alpha        beta       gamma     vir_pmf       press


 ------------------------------------------------------------------------------------------------------------------------
        1 -1.2761E+04  0.0000E+00 -1.2761E+04 -7.2576E+00 -1.2754E+04  0.0000E+00  0.0000E+00  0.0000E+00  0.0000E+00
   1.000f -1.2819E+04  0.0000E+00  1.7256E+02  2.3631E+01  1.4893E+02  0.0000E+00  0.0000E+00  0.0000E+00  0.0000E+00
   0.126s  2.6538E+04  0.0000E+00  0.0000E+00  0.0000E+00  9.0000E+01  1.1589E+02  9.0000E+01  0.0000E+00 -1.4862E-01

  rolling -1.2761E+04  0.0000E+00 -1.2761E+04 -7.2576E+00 -1.2754E+04  0.0000E+00  0.0000E+00  0.0000E+00  0.0000E+00
 averages -1.2819E+04  0.0000E+00  1.7256E+02  2.3631E+01  1.4893E+02  0.0000E+00  0.0000E+00  0.0000E+00  0.0000E+00
           2.6538E+04  0.0000E+00  0.0000E+00  0.0000E+00  9.0000E+01  1.1589E+02  9.0000E+01  0.0000E+00 -1.4862E-01
 ------------------------------------------------------------------------------------------------------------------------


 run terminating. elapsed cpu time =   1.26000E-01, job time = *******d, close time = 2000.00s



 run terminated after       1 steps. final averages calculated over       1 steps.


 ------------------------------------------------------------------------------------------------------------------------

     step     eng_tot    temp_tot     eng_cfg     eng_vdw     eng_cou     eng_bnd     eng_ang     eng_dih     eng_tet
 time          eng_pv    temp_rot     vir_cfg     vir_vdw     vir_cou     vir_bnd     vir_ang     vir_con     vir_tet
 cpu time      volume    temp_shl     eng_shl     vir_shl       alpha        beta       gamma     vir_pmf       press


 ------------------------------------------------------------------------------------------------------------------------
        1 -1.2761E+04  0.0000E+00 -1.2761E+04 -7.2576E+00 -1.2754E+04  0.0000E+00  0.0000E+00  0.0000E+00  0.0000E+00
   1.000f -1.2819E+04  0.0000E+00  1.7256E+02  2.3631E+01  1.4893E+02  0.0000E+00  0.0000E+00  0.0000E+00  0.0000E+00
   0.148s  2.6538E+04  0.0000E+00  0.0000E+00  0.0000E+00  9.0000E+01  1.1589E+02  9.0000E+01  0.0000E+00 -1.4862E-01

  r.m.s.   0.0000E+00  0.0000E+00  0.0000E+00  0.0000E+00  0.0000E+00  0.0000E+00  0.0000E+00  0.0000E+00  0.0000E+00
 fluctn.   0.0000E+00  0.0000E+00  0.0000E+00  0.0000E+00  0.0000E+00  0.0000E+00  0.0000E+00  0.0000E+00  0.0000E+00
           0.0000E+00  0.0000E+00  0.0000E+00  0.0000E+00  0.0000E+00  0.0000E+00  0.0000E+00  0.0000E+00  0.0000E+00
 ------------------------------------------------------------------------------------------------------------------------


            Approximate 3D Diffusion  coefficients (10^-9 m^2 / s)

            atom        D 
            SX         0.0000E+00
            HS         0.0000E+00
            Zn         0.0000E+00
            N          0.0000E+00
            O          0.0000E+00
            C          0.0000E+00
            H          0.0000E+00


                Average pressure tensor                                       r.m.s. fluctuations 

          -1.9275E-01 -3.1651E-03 -1.1597E-01                          0.0000E+00  0.0000E+00  0.0000E+00
          -3.1651E-03 -8.6913E-02 -9.8432E-03                          0.0000E+00  0.0000E+00  0.0000E+00
          -1.1597E-01 -9.8432E-03 -1.6620E-01                          0.0000E+00  0.0000E+00  0.0000E+00

            trace/3.  -1.4862E-01


 gaussian moments of momenta. over  0.000000E+00 samples
    0.000000E+00    0.000000E+00    0.000000E+00    0.000000E+00    0.000000E+00


 sample of final configuration

      i       x(i)        y(i)        z(i)       vx(i)       vy(i)       vz(i)       fx(i)       fy(i)       fz(i)


      1  1.6236E+00  5.5196E+00  4.0015E+00  0.0000E+00  0.0000E+00  0.0000E+00 -2.2664E+02  1.7685E+02 -6.1093E+02
     81 -3.3987E+00  2.3710E+00  1.0040E+01  0.0000E+00  0.0000E+00  0.0000E+00  0.0000E+00  0.0000E+00  0.0000E+00
    161  7.7232E+00  1.2618E+01  2.0578E+00  0.0000E+00  0.0000E+00  0.0000E+00  0.0000E+00  0.0000E+00  0.0000E+00
    241  5.7173E+00 -1.3803E+01 -9.4017E-01  0.0000E+00  0.0000E+00  0.0000E+00  0.0000E+00  0.0000E+00  0.0000E+00
    321 -3.6926E+00 -6.2765E+00  9.2992E+00  0.0000E+00  0.0000E+00  0.0000E+00  0.0000E+00  0.0000E+00  0.0000E+00
    401  1.5998E+01  5.4062E+00  5.3927E-01  0.0000E+00  0.0000E+00  0.0000E+00  0.0000E+00  0.0000E+00  0.0000E+00
    481  6.4661E+00  1.8490E+00  9.9858E+00  0.0000E+00  0.0000E+00  0.0000E+00  0.0000E+00  0.0000E+00  0.0000E+00
    561  1.5662E+01  1.2671E+01  2.5303E+00  0.0000E+00  0.0000E+00  0.0000E+00  0.0000E+00  0.0000E+00  0.0000E+00
    641  1.2525E+01 -1.4243E+01 -1.4777E+00  0.0000E+00  0.0000E+00  0.0000E+00  0.0000E+00  0.0000E+00  0.0000E+00
    721  4.5211E+00 -7.6714E+00  1.0870E+01  0.0000E+00  0.0000E+00  0.0000E+00  0.0000E+00  0.0000E+00  0.0000E+00
    801 -9.7338E+00  3.7727E+00  1.1236E+00  0.0000E+00  0.0000E+00  0.0000E+00  0.0000E+00  0.0000E+00  0.0000E+00
    881 -9.1125E+00  5.1453E+00 -9.2267E+00  0.0000E+00  0.0000E+00  0.0000E+00  0.0000E+00  0.0000E+00  0.0000E+00
    961 -1.7085E+01  1.2065E+01  1.5084E+00  0.0000E+00  0.0000E+00  0.0000E+00  0.0000E+00  0.0000E+00  0.0000E+00
   1041 -5.9627E+00  1.2618E+01 -6.4736E+00  0.0000E+00  0.0000E+00  0.0000E+00  0.0000E+00  0.0000E+00  0.0000E+00
   1121 -7.9686E+00 -4.1091E+00 -9.4716E+00  0.0000E+00  0.0000E+00  0.0000E+00  0.0000E+00  0.0000E+00  0.0000E+00
   1201 -8.4647E+00  3.4170E+00  7.6783E-01  0.0000E+00  0.0000E+00  0.0000E+00  0.0000E+00  0.0000E+00  0.0000E+00
   1281  2.3121E+00  5.4062E+00 -7.9922E+00  0.0000E+00  0.0000E+00  0.0000E+00  0.0000E+00  0.0000E+00  0.0000E+00
   1361 -7.2198E+00  1.1543E+01  1.4543E+00  0.0000E+00  0.0000E+00  0.0000E+00  0.0000E+00  0.0000E+00  0.0000E+00
   1441  1.9761E+00  1.2671E+01 -6.0011E+00  0.0000E+00  0.0000E+00  0.0000E+00  0.0000E+00  0.0000E+00  0.0000E+00
   1521 -1.1604E+00 -4.5491E+00 -1.0009E+01  0.0000E+00  0.0000E+00  0.0000E+00  0.0000E+00  0.0000E+00  0.0000E+00

 time elapsed since job start =           0.148 seconds

