
                    DL_POLY Classic 1.10

                              Running on    1 nodes


 ************************************************************************************************************************
 ************************************************************************************************************************
 ************************************************************************************************************************
 ***************     # minimisation                                                                       ***************
 ************************************************************************************************************************
 ************************************************************************************************************************
 ************************************************************************************************************************


 SIMULATION CONTROL PARAMETERS


 structure optimisation requested
 convergence to minimum energy selected
 tolerance for structure optimisation      1.0000E+00         

 selected number of timesteps            1

 simulation timestep              1.0000E-03

 real space cut off               1.2500E+01

 border width of Verlet shell     1.0000E+00

 Ewald sum  precision             1.0000E-06

 Electrostatics : Ewald sum  

 Ewald convergence parameter      2.5396E-01
 Ewald kmax1 kmax2 kmax3         9    8    8

 user allocated job time (d)    ********

 job closure time        (s)    2000.000

 statistics file interval                1


SYSTEM SPECIFICATION

 energy units=kcal/ mol 


 number of molecular types               2

 molecular species type                  1


 name of species:             &guest TIP5P Water: http://dx.doi.org/10

 number of molecules                     1

 number of atoms/sites                   5


 atomic characteristics:

                      site     name          mass        charge    repeat    freeze

                         1     Ow          15.99900     0.00000         1         0
                         2     Hw           1.00790     0.24100         1         0
                         3     Hw           1.00790     0.24100         1         0
                         4     L            0.00000    -0.24100         1         0
                         5     L            0.00000    -0.24100         1         0

 number of rigid units                   1

 rigid body details:

                           unit   indices

                              1         1         2         3         4         5

 molecular species type                  2


 name of species:             Framework                               

 number of molecules                    36

 number of atoms/sites                  44


 atomic characteristics:

                      site     name          mass        charge    repeat    freeze

                         6     Zn          65.38000     0.82225         1         1
                         7     Zn          65.38000     0.82223         1         1
                         8     Zn          65.38000     0.82223         1         1
                         9     Zn          65.38000     0.82229         1         1
                        10     N           14.00670    -0.33147         1         1
                        11     N           14.00670    -0.33147         1         1
                        12     N           14.00670    -0.33144         1         1
                        13     N           14.00670    -0.33144         1         1
                        14     N           14.00670    -0.14746         1         1
                        15     N           14.00670    -0.14746         1         1
                        16     N           14.00670    -0.14748         1         1
                        17     N           14.00670    -0.14748         1         1
                        18     N           14.00670    -0.39498         1         1
                        19     N           14.00670    -0.39499         1         1
                        20     N           14.00670    -0.39502         1         1
                        21     N           14.00670    -0.39496         1         1
                        22     O           15.99940    -0.56331         1         1
                        23     O           15.99940    -0.56329         1         1
                        24     O           15.99940    -0.56331         1         1
                        25     O           15.99940    -0.56333         1         1
                        26     O           15.99940    -0.47679         1         1
                        27     O           15.99940    -0.47680         1         1
                        28     O           15.99940    -0.47679         1         1
                        29     O           15.99940    -0.47678         1         1
                        30     C           12.01070     0.22788         1         1
                        31     C           12.01070     0.22788         1         1
                        32     C           12.01070     0.22788         1         1
                        33     C           12.01070     0.22783         1         1
                        34     H            1.00794     0.06907         1         1
                        35     H            1.00794     0.06907         1         1
                        36     H            1.00794     0.06907         1         1
                        37     H            1.00794     0.06909         1         1
                        38     C           12.01070     0.20824         1         1
                        39     C           12.01070     0.20824         1         1
                        40     C           12.01070     0.20827         1         1
                        41     C           12.01070     0.20825         1         1
                        42     H            1.00794     0.08720         1         1
                        43     H            1.00794     0.08721         1         1
                        44     H            1.00794     0.08721         1         1
                        45     H            1.00794     0.08721         1         1
                        46     C           12.01070     0.49938         1         1
                        47     C           12.01070     0.49935         1         1
                        48     C           12.01070     0.49936         1         1
                        49     C           12.01070     0.49938         1         1


 number of specified pair potentials        36


                atom 1  atom 2      key                              parameters


                Zn      Zn        lj       1.24000E-01  2.46160E+00
                Zn      N         lj       9.24990E-02  2.86115E+00
                Zn      O         lj       8.62550E-02  2.78985E+00
                Zn      C         lj       1.14105E-01  2.94625E+00
                Zn      H         lj       7.38650E-02  2.51635E+00
                Zn      Ow        lj       1.40850E-01  2.79080E+00
                Zn      Hw        lj       0.00000E+00  0.00000E+00
                Zn      L         lj       0.00000E+00  0.00000E+00
                N       N         lj       6.90000E-02  3.26070E+00
                N       O         lj       6.43430E-02  3.18940E+00
                N       C         lj       8.51180E-02  3.34580E+00
                N       H         lj       5.51000E-02  2.91590E+00
                N       Ow        lj       1.05068E-01  3.19035E+00
                N       Hw        lj       0.00000E+00  0.00000E+00
                N       L         lj       0.00000E+00  0.00000E+00
                O       O         lj       6.00000E-02  3.11810E+00
                O       C         lj       7.93730E-02  3.27450E+00
                O       H         lj       5.13810E-02  2.84460E+00
                O       Ow        lj       9.79770E-02  3.11905E+00
                O       Hw        lj       0.00000E+00  0.00000E+00
                O       L         lj       0.00000E+00  0.00000E+00
                C       C         lj       1.05000E-01  3.43090E+00
                C       H         lj       6.79710E-02  3.00100E+00
                C       Ow        lj       1.29611E-01  3.27545E+00
                C       Hw        lj       0.00000E+00  0.00000E+00
                C       L         lj       0.00000E+00  0.00000E+00
                H       H         lj       4.40000E-02  2.57110E+00
                H       Ow        lj       8.39020E-02  2.84555E+00
                H       Hw        lj       0.00000E+00  0.00000E+00
                H       L         lj       0.00000E+00  0.00000E+00
                Ow      Ow        lj       1.59990E-01  3.12000E+00
                Ow      Hw        lj       0.00000E+00  0.00000E+00
                Ow      L         lj       0.00000E+00  0.00000E+00
                Hw      Hw        lj       0.00000E+00  0.00000E+00
                Hw      L         lj       0.00000E+00  0.00000E+00
                L       L         lj       0.00000E+00  0.00000E+00

 configuration file name: 

          calf-20                                                                         


 selected image convention               3


 simulation cell vectors


                        35.655198    0.000000    0.000000
                         0.000000   29.080468    0.000000
                       -12.425115    0.000000   25.594261


 system volume            26537.9179060    


             summary of rigid body set up

 group of type          1
             total mass           18.0148000000
             rot. inertia          1.7695127433        1.1550004991        0.6145122443

             site        a coord        b coord        c coord
                1    0.00000E+00   -6.55583E-02    7.86750E-08
                2    0.00000E+00    5.20324E-01    7.56950E-01
                3    0.00000E+00    5.20323E-01   -7.56951E-01
                4   -5.71543E-01   -4.69710E-01    2.86232E-08
                5    5.71543E-01   -4.69710E-01    2.86237E-08


 total degrees of freedom                         3.
 rotational degrees of freedom                    3.
 shell pseudo degrees of freedom                  0.


 sample of starting configuration

      i       x(i)        y(i)        z(i)       vx(i)       vy(i)       vz(i)


      1  1.0225E+00  6.7109E+00  4.9322E+00  0.0000E+00  0.0000E+00  0.0000E+00
     81  6.3073E+00  6.7165E+00 -1.1062E+01  0.0000E+00  0.0000E+00  0.0000E+00
    161  5.3021E+00  1.4243E+01  1.4776E+00  0.0000E+00  0.0000E+00  0.0000E+00
    241  9.1648E+00 -1.1716E+01 -2.3385E+00  0.0000E+00  0.0000E+00  0.0000E+00
    321  4.9617E+00 -3.7727E+00 -9.6550E+00  0.0000E+00  0.0000E+00  0.0000E+00
    401  8.4821E+00 -5.1453E+00 -7.8361E+00  0.0000E+00  0.0000E+00  0.0000E+00
    481  2.1226E+01  7.3225E+00 -1.0040E+01  0.0000E+00  0.0000E+00  0.0000E+00
    561  5.9627E+00 -1.2618E+01  6.4736E+00  0.0000E+00  0.0000E+00  0.0000E+00
    641  1.6252E+01  1.3803E+01 -7.5913E+00  0.0000E+00  0.0000E+00  0.0000E+00
    721  2.1520E+01 -3.4169E+00 -9.2993E+00  0.0000E+00  0.0000E+00  0.0000E+00
    801 -2.0140E+01  4.2873E+00  7.9921E+00  0.0000E+00  0.0000E+00  0.0000E+00
    881 -6.4661E+00  7.8445E+00 -9.9858E+00  0.0000E+00  0.0000E+00  0.0000E+00
    961 -1.9804E+01 -1.2671E+01  6.0011E+00  0.0000E+00  0.0000E+00  0.0000E+00
   1041 -8.3837E+00  1.4243E+01 -7.0538E+00  0.0000E+00  0.0000E+00  0.0000E+00
   1121 -4.5211E+00 -2.0221E+00 -1.0870E+01  0.0000E+00  0.0000E+00  0.0000E+00
   1201 -1.2236E+01  5.9208E+00  7.4078E+00  0.0000E+00  0.0000E+00  0.0000E+00
   1281 -8.7151E+00  4.5482E+00  9.2267E+00  0.0000E+00  0.0000E+00  0.0000E+00
   1361 -4.8847E+00 -1.2065E+01  7.0231E+00  0.0000E+00  0.0000E+00  0.0000E+00
   1441 -7.7232E+00 -1.2618E+01 -2.0578E+00  0.0000E+00  0.0000E+00  0.0000E+00
   1521 -9.8590E+00 -5.5844E+00  9.4716E+00  0.0000E+00  0.0000E+00  0.0000E+00


long range correction for: vdw energy    -0.534850E-01
                         : vdw pressure  -0.276363E-03

 time elapsed since job start =           0.005 seconds

 ------------------------------------------------------------------------------------------------------------------------

     step     eng_tot    temp_tot     eng_cfg     eng_vdw     eng_cou     eng_bnd     eng_ang     eng_dih     eng_tet
 time          eng_pv    temp_rot     vir_cfg     vir_vdw     vir_cou     vir_bnd     vir_ang     vir_con     vir_tet
 cpu time      volume    temp_shl     eng_shl     vir_shl       alpha        beta       gamma     vir_pmf       press


 ------------------------------------------------------------------------------------------------------------------------
        1 -1.2761E+04  0.0000E+00 -1.2761E+04 -2.4456E+00 -1.2758E+04  0.0000E+00  0.0000E+00  0.0000E+00  0.0000E+00
   1.000f -1.2810E+04  0.0000E+00  1.4738E+02 -5.5134E+00  1.5290E+02  0.0000E+00  0.0000E+00  0.0000E+00  0.0000E+00
   0.081s  2.6538E+04  0.0000E+00  0.0000E+00  0.0000E+00  9.0000E+01  1.1589E+02  9.0000E+01  0.0000E+00 -1.2694E-01

  rolling -1.2761E+04  0.0000E+00 -1.2761E+04 -2.4456E+00 -1.2758E+04  0.0000E+00  0.0000E+00  0.0000E+00  0.0000E+00
 averages -1.2810E+04  0.0000E+00  1.4738E+02 -5.5134E+00  1.5290E+02  0.0000E+00  0.0000E+00  0.0000E+00  0.0000E+00
           2.6538E+04  0.0000E+00  0.0000E+00  0.0000E+00  9.0000E+01  1.1589E+02  9.0000E+01  0.0000E+00 -1.2694E-01
 ------------------------------------------------------------------------------------------------------------------------


 run terminating. elapsed cpu time =   8.10000E-02, job time = *******d, close time = 2000.00s



 run terminated after       1 steps. final averages calculated over       1 steps.


 ------------------------------------------------------------------------------------------------------------------------

     step     eng_tot    temp_tot     eng_cfg     eng_vdw     eng_cou     eng_bnd     eng_ang     eng_dih     eng_tet
 time          eng_pv    temp_rot     vir_cfg     vir_vdw     vir_cou     vir_bnd     vir_ang     vir_con     vir_tet
 cpu time      volume    temp_shl     eng_shl     vir_shl       alpha        beta       gamma     vir_pmf       press


 ------------------------------------------------------------------------------------------------------------------------
        1 -1.2761E+04  0.0000E+00 -1.2761E+04 -2.4456E+00 -1.2758E+04  0.0000E+00  0.0000E+00  0.0000E+00  0.0000E+00
   1.000f -1.2810E+04  0.0000E+00  1.4738E+02 -5.5134E+00  1.5290E+02  0.0000E+00  0.0000E+00  0.0000E+00  0.0000E+00
   0.098s  2.6538E+04  0.0000E+00  0.0000E+00  0.0000E+00  9.0000E+01  1.1589E+02  9.0000E+01  0.0000E+00 -1.2694E-01

  r.m.s.   0.0000E+00  0.0000E+00  0.0000E+00  0.0000E+00  0.0000E+00  0.0000E+00  0.0000E+00  0.0000E+00  0.0000E+00
 fluctn.   0.0000E+00  0.0000E+00  0.0000E+00  0.0000E+00  0.0000E+00  0.0000E+00  0.0000E+00  0.0000E+00  0.0000E+00
           0.0000E+00  0.0000E+00  0.0000E+00  0.0000E+00  0.0000E+00  0.0000E+00  0.0000E+00  0.0000E+00  0.0000E+00
 ------------------------------------------------------------------------------------------------------------------------


            Approximate 3D Diffusion  coefficients (10^-9 m^2 / s)

            atom        D 
            Ow         0.0000E+00
            Hw         0.0000E+00
            L          0.0000E+00
            Zn         0.0000E+00
            N          0.0000E+00
            O          0.0000E+00
            C          0.0000E+00
            H          0.0000E+00


                Average pressure tensor                                       r.m.s. fluctuations 

          -1.8141E-01  4.1343E-03 -1.2729E-01                          0.0000E+00  0.0000E+00  0.0000E+00
           4.1343E-03 -6.6222E-02 -7.2468E-03                          0.0000E+00  0.0000E+00  0.0000E+00
          -1.2729E-01 -7.2468E-03 -1.3317E-01                          0.0000E+00  0.0000E+00  0.0000E+00

            trace/3.  -1.2694E-01


 gaussian moments of momenta. over  0.000000E+00 samples
    0.000000E+00    0.000000E+00    0.000000E+00    0.000000E+00    0.000000E+00


 sample of final configuration

      i       x(i)        y(i)        z(i)       vx(i)       vy(i)       vz(i)       fx(i)       fy(i)       fz(i)


      1  1.0235E+00  6.7113E+00  4.9333E+00  0.0000E+00  0.0000E+00  0.0000E+00 -9.4327E+00  4.0636E+02 -1.1712E+03
     81  6.3073E+00  6.7165E+00 -1.1062E+01  0.0000E+00  0.0000E+00  0.0000E+00  0.0000E+00  0.0000E+00  0.0000E+00
    161  5.3021E+00  1.4243E+01  1.4776E+00  0.0000E+00  0.0000E+00  0.0000E+00  0.0000E+00  0.0000E+00  0.0000E+00
    241  9.1648E+00 -1.1716E+01 -2.3385E+00  0.0000E+00  0.0000E+00  0.0000E+00  0.0000E+00  0.0000E+00  0.0000E+00
    321  4.9617E+00 -3.7727E+00 -9.6550E+00  0.0000E+00  0.0000E+00  0.0000E+00  0.0000E+00  0.0000E+00  0.0000E+00
    401  8.4821E+00 -5.1453E+00 -7.8361E+00  0.0000E+00  0.0000E+00  0.0000E+00  0.0000E+00  0.0000E+00  0.0000E+00
    481  2.1226E+01  7.3225E+00 -1.0040E+01  0.0000E+00  0.0000E+00  0.0000E+00  0.0000E+00  0.0000E+00  0.0000E+00
    561  5.9627E+00 -1.2618E+01  6.4736E+00  0.0000E+00  0.0000E+00  0.0000E+00  0.0000E+00  0.0000E+00  0.0000E+00
    641  1.6252E+01  1.3803E+01 -7.5913E+00  0.0000E+00  0.0000E+00  0.0000E+00  0.0000E+00  0.0000E+00  0.0000E+00
    721  2.1520E+01 -3.4169E+00 -9.2993E+00  0.0000E+00  0.0000E+00  0.0000E+00  0.0000E+00  0.0000E+00  0.0000E+00
    801 -2.0140E+01  4.2873E+00  7.9921E+00  0.0000E+00  0.0000E+00  0.0000E+00  0.0000E+00  0.0000E+00  0.0000E+00
    881 -6.4661E+00  7.8445E+00 -9.9858E+00  0.0000E+00  0.0000E+00  0.0000E+00  0.0000E+00  0.0000E+00  0.0000E+00
    961 -1.9804E+01 -1.2671E+01  6.0011E+00  0.0000E+00  0.0000E+00  0.0000E+00  0.0000E+00  0.0000E+00  0.0000E+00
   1041 -8.3837E+00  1.4243E+01 -7.0538E+00  0.0000E+00  0.0000E+00  0.0000E+00  0.0000E+00  0.0000E+00  0.0000E+00
   1121 -4.5211E+00 -2.0221E+00 -1.0870E+01  0.0000E+00  0.0000E+00  0.0000E+00  0.0000E+00  0.0000E+00  0.0000E+00
   1201 -1.2236E+01  5.9208E+00  7.4078E+00  0.0000E+00  0.0000E+00  0.0000E+00  0.0000E+00  0.0000E+00  0.0000E+00
   1281 -8.7151E+00  4.5482E+00  9.2267E+00  0.0000E+00  0.0000E+00  0.0000E+00  0.0000E+00  0.0000E+00  0.0000E+00
   1361 -4.8847E+00 -1.2065E+01  7.0231E+00  0.0000E+00  0.0000E+00  0.0000E+00  0.0000E+00  0.0000E+00  0.0000E+00
   1441 -7.7232E+00 -1.2618E+01 -2.0578E+00  0.0000E+00  0.0000E+00  0.0000E+00  0.0000E+00  0.0000E+00  0.0000E+00
   1521 -9.8590E+00 -5.5844E+00  9.4716E+00  0.0000E+00  0.0000E+00  0.0000E+00  0.0000E+00  0.0000E+00  0.0000E+00

 time elapsed since job start =           0.098 seconds

